# vtk DataFile Version 2.0
GEOM_VOLUME_FINITO
ASCII
DATASET UNSTRUCTURED_GRID

POINTS 231 double
  0.000000000000e+00   0.000000000000e+00   0.000000000000e+00 
  0.000000000000e+00   1.000000000000e-01   0.000000000000e+00 
  1.000000000000e-01   0.000000000000e+00   0.000000000000e+00 
  1.000000000000e-01   1.000000000000e-01   0.000000000000e+00 
  0.000000000000e+00   2.000000000000e-01   0.000000000000e+00 
  2.000000000000e-01   0.000000000000e+00   0.000000000000e+00 
  2.000000000000e-01   1.000000000000e-01   0.000000000000e+00 
  1.000000000000e-01   2.000000000000e-01   0.000000000000e+00 
  2.000000000000e-01   2.000000000000e-01   0.000000000000e+00 
  3.000000000000e-01   0.000000000000e+00   0.000000000000e+00 
  0.000000000000e+00   3.000000000000e-01   0.000000000000e+00 
  1.000000000000e-01   3.000000000000e-01   0.000000000000e+00 
  3.000000000000e-01   1.000000000000e-01   0.000000000000e+00 
  2.000000000000e-01   3.000000000000e-01   0.000000000000e+00 
  3.000000000000e-01   2.000000000000e-01   0.000000000000e+00 
  4.000000000000e-01   0.000000000000e+00   0.000000000000e+00 
  0.000000000000e+00   4.000000000000e-01   0.000000000000e+00 
  4.000000000000e-01   1.000000000000e-01   0.000000000000e+00 
  1.000000000000e-01   4.000000000000e-01   0.000000000000e+00 
  3.000000000000e-01   3.000000000000e-01   0.000000000000e+00 
  4.000000000000e-01   2.000000000000e-01   0.000000000000e+00 
  2.000000000000e-01   4.000000000000e-01   0.000000000000e+00 
  0.000000000000e+00   5.000000000000e-01   0.000000000000e+00 
  4.000000000000e-01   3.000000000000e-01   0.000000000000e+00 
  5.000000000000e-01   0.000000000000e+00   0.000000000000e+00 
  3.000000000000e-01   4.000000000000e-01   0.000000000000e+00 
  5.000000000000e-01   1.000000000000e-01   0.000000000000e+00 
  1.000000000000e-01   5.000000000000e-01   0.000000000000e+00 
  2.000000000000e-01   5.000000000000e-01   0.000000000000e+00 
  5.000000000000e-01   2.000000000000e-01   0.000000000000e+00 
  4.000000000000e-01   4.000000000000e-01   0.000000000000e+00 
  3.000000000000e-01   5.000000000000e-01   0.000000000000e+00 
  5.000000000000e-01   3.000000000000e-01   0.000000000000e+00 
  6.000000000000e-01   0.000000000000e+00   0.000000000000e+00 
  0.000000000000e+00   6.000000000000e-01   0.000000000000e+00 
  6.000000000000e-01   1.000000000000e-01   0.000000000000e+00 
  1.000000000000e-01   6.000000000000e-01   0.000000000000e+00 
  2.000000000000e-01   6.000000000000e-01   0.000000000000e+00 
  6.000000000000e-01   2.000000000000e-01   0.000000000000e+00 
  4.000000000000e-01   5.000000000000e-01   0.000000000000e+00 
  5.000000000000e-01   4.000000000000e-01   0.000000000000e+00 
  3.000000000000e-01   6.000000000000e-01   0.000000000000e+00 
  6.000000000000e-01   3.000000000000e-01   0.000000000000e+00 
  7.000000000000e-01   0.000000000000e+00   0.000000000000e+00 
  0.000000000000e+00   7.000000000000e-01   0.000000000000e+00 
  7.000000000000e-01   1.000000000000e-01   0.000000000000e+00 
  1.000000000000e-01   7.000000000000e-01   0.000000000000e+00 
  5.000000000000e-01   5.000000000000e-01   0.000000000000e+00 
  4.000000000000e-01   6.000000000000e-01   0.000000000000e+00 
  6.000000000000e-01   4.000000000000e-01   0.000000000000e+00 
  2.000000000000e-01   7.000000000000e-01   0.000000000000e+00 
  7.000000000000e-01   2.000000000000e-01   0.000000000000e+00 
  7.000000000000e-01   3.000000000000e-01   0.000000000000e+00 
  3.000000000000e-01   7.000000000000e-01   0.000000000000e+00 
  5.000000000000e-01   6.000000000000e-01   0.000000000000e+00 
  6.000000000000e-01   5.000000000000e-01   0.000000000000e+00 
  8.000000000000e-01   0.000000000000e+00   0.000000000000e+00 
  0.000000000000e+00   8.000000000000e-01   0.000000000000e+00 
  4.000000000000e-01   7.000000000000e-01   0.000000000000e+00 
  8.000000000000e-01   1.000000000000e-01   0.000000000000e+00 
  7.000000000000e-01   4.000000000000e-01   0.000000000000e+00 
  1.000000000000e-01   8.000000000000e-01   0.000000000000e+00 
  8.000000000000e-01   2.000000000000e-01   0.000000000000e+00 
  2.000000000000e-01   8.000000000000e-01   0.000000000000e+00 
  6.000000000000e-01   6.000000000000e-01   0.000000000000e+00 
  8.000000000000e-01   3.000000000000e-01   0.000000000000e+00 
  3.000000000000e-01   8.000000000000e-01   0.000000000000e+00 
  7.000000000000e-01   5.000000000000e-01   0.000000000000e+00 
  5.000000000000e-01   7.000000000000e-01   0.000000000000e+00 
  8.000000000000e-01   4.000000000000e-01   0.000000000000e+00 
  4.000000000000e-01   8.000000000000e-01   0.000000000000e+00 
  0.000000000000e+00   9.000000000000e-01   0.000000000000e+00 
  9.000000000000e-01   0.000000000000e+00   0.000000000000e+00 
  9.000000000000e-01   1.000000000000e-01   0.000000000000e+00 
  1.000000000000e-01   9.000000000000e-01   0.000000000000e+00 
  2.000000000000e-01   9.000000000000e-01   0.000000000000e+00 
  6.000000000000e-01   7.000000000000e-01   0.000000000000e+00 
  7.000000000000e-01   6.000000000000e-01   0.000000000000e+00 
  9.000000000000e-01   2.000000000000e-01   0.000000000000e+00 
  8.000000000000e-01   5.000000000000e-01   0.000000000000e+00 
  5.000000000000e-01   8.000000000000e-01   0.000000000000e+00 
  3.000000000000e-01   9.000000000000e-01   0.000000000000e+00 
  9.000000000000e-01   3.000000000000e-01   0.000000000000e+00 
  4.000000000000e-01   9.000000000000e-01   0.000000000000e+00 
  9.000000000000e-01   4.000000000000e-01   0.000000000000e+00 
  7.000000000000e-01   7.000000000000e-01   0.000000000000e+00 
  1.000000000000e+00   0.000000000000e+00   0.000000000000e+00 
  0.000000000000e+00   1.000000000000e+00   0.000000000000e+00 
  8.000000000000e-01   6.000000000000e-01   0.000000000000e+00 
  6.000000000000e-01   8.000000000000e-01   0.000000000000e+00 
  1.000000000000e+00   1.000000000000e-01   0.000000000000e+00 
  1.000000000000e-01   1.000000000000e+00   0.000000000000e+00 
  1.000000000000e+00   2.000000000000e-01   0.000000000000e+00 
  2.000000000000e-01   1.000000000000e+00   0.000000000000e+00 
  5.000000000000e-01   9.000000000000e-01   0.000000000000e+00 
  9.000000000000e-01   5.000000000000e-01   0.000000000000e+00 
  1.000000000000e+00   3.000000000000e-01   0.000000000000e+00 
  3.000000000000e-01   1.000000000000e+00   0.000000000000e+00 
  8.000000000000e-01   7.000000000000e-01   0.000000000000e+00 
  7.000000000000e-01   8.000000000000e-01   0.000000000000e+00 
  1.000000000000e+00   4.000000000000e-01   0.000000000000e+00 
  4.000000000000e-01   1.000000000000e+00   0.000000000000e+00 
  6.000000000000e-01   9.000000000000e-01   0.000000000000e+00 
  9.000000000000e-01   6.000000000000e-01   0.000000000000e+00 
  1.100000000000e+00   0.000000000000e+00   0.000000000000e+00 
  1.100000000000e+00   1.000000000000e-01   0.000000000000e+00 
  1.000000000000e+00   5.000000000000e-01   0.000000000000e+00 
  5.000000000000e-01   1.000000000000e+00   0.000000000000e+00 
  1.100000000000e+00   2.000000000000e-01   0.000000000000e+00 
  8.000000000000e-01   8.000000000000e-01   0.000000000000e+00 
  9.000000000000e-01   7.000000000000e-01   0.000000000000e+00 
  7.000000000000e-01   9.000000000000e-01   0.000000000000e+00 
  1.100000000000e+00   3.000000000000e-01   0.000000000000e+00 
  6.000000000000e-01   1.000000000000e+00   0.000000000000e+00 
  1.000000000000e+00   6.000000000000e-01   0.000000000000e+00 
  1.100000000000e+00   4.000000000000e-01   0.000000000000e+00 
  1.200000000000e+00   0.000000000000e+00   0.000000000000e+00 
  8.000000000000e-01   9.000000000000e-01   0.000000000000e+00 
  1.200000000000e+00   1.000000000000e-01   0.000000000000e+00 
  9.000000000000e-01   8.000000000000e-01   0.000000000000e+00 
  1.100000000000e+00   5.000000000000e-01   0.000000000000e+00 
  1.200000000000e+00   2.000000000000e-01   0.000000000000e+00 
  1.000000000000e+00   7.000000000000e-01   0.000000000000e+00 
  7.000000000000e-01   1.000000000000e+00   0.000000000000e+00 
  1.200000000000e+00   3.000000000000e-01   0.000000000000e+00 
  1.100000000000e+00   6.000000000000e-01   0.000000000000e+00 
  1.200000000000e+00   4.000000000000e-01   0.000000000000e+00 
  9.000000000000e-01   9.000000000000e-01   0.000000000000e+00 
  1.000000000000e+00   8.000000000000e-01   0.000000000000e+00 
  8.000000000000e-01   1.000000000000e+00   0.000000000000e+00 
  1.200000000000e+00   5.000000000000e-01   0.000000000000e+00 
  1.300000000000e+00   0.000000000000e+00   0.000000000000e+00 
  1.300000000000e+00   1.000000000000e-01   0.000000000000e+00 
  1.100000000000e+00   7.000000000000e-01   0.000000000000e+00 
  1.300000000000e+00   2.000000000000e-01   0.000000000000e+00 
  1.300000000000e+00   3.000000000000e-01   0.000000000000e+00 
  1.200000000000e+00   6.000000000000e-01   0.000000000000e+00 
  1.000000000000e+00   9.000000000000e-01   0.000000000000e+00 
  9.000000000000e-01   1.000000000000e+00   0.000000000000e+00 
  1.300000000000e+00   4.000000000000e-01   0.000000000000e+00 
  1.100000000000e+00   8.000000000000e-01   0.000000000000e+00 
  1.200000000000e+00   7.000000000000e-01   0.000000000000e+00 
  1.300000000000e+00   5.000000000000e-01   0.000000000000e+00 
  1.400000000000e+00   0.000000000000e+00   0.000000000000e+00 
  1.400000000000e+00   1.000000000000e-01   0.000000000000e+00 
  1.400000000000e+00   2.000000000000e-01   0.000000000000e+00 
  1.000000000000e+00   1.000000000000e+00   0.000000000000e+00 
  1.100000000000e+00   9.000000000000e-01   0.000000000000e+00 
  1.300000000000e+00   6.000000000000e-01   0.000000000000e+00 
  1.400000000000e+00   3.000000000000e-01   0.000000000000e+00 
  1.200000000000e+00   8.000000000000e-01   0.000000000000e+00 
  1.400000000000e+00   4.000000000000e-01   0.000000000000e+00 
  1.300000000000e+00   7.000000000000e-01   0.000000000000e+00 
  1.400000000000e+00   5.000000000000e-01   0.000000000000e+00 
  1.100000000000e+00   1.000000000000e+00   0.000000000000e+00 
  1.200000000000e+00   9.000000000000e-01   0.000000000000e+00 
  1.500000000000e+00   0.000000000000e+00   0.000000000000e+00 
  1.500000000000e+00   1.000000000000e-01   0.000000000000e+00 
  1.500000000000e+00   2.000000000000e-01   0.000000000000e+00 
  1.400000000000e+00   6.000000000000e-01   0.000000000000e+00 
  1.300000000000e+00   8.000000000000e-01   0.000000000000e+00 
  1.500000000000e+00   3.000000000000e-01   0.000000000000e+00 
  1.500000000000e+00   4.000000000000e-01   0.000000000000e+00 
  1.200000000000e+00   1.000000000000e+00   0.000000000000e+00 
  1.400000000000e+00   7.000000000000e-01   0.000000000000e+00 
  1.300000000000e+00   9.000000000000e-01   0.000000000000e+00 
  1.500000000000e+00   5.000000000000e-01   0.000000000000e+00 
  1.600000000000e+00   0.000000000000e+00   0.000000000000e+00 
  1.600000000000e+00   1.000000000000e-01   0.000000000000e+00 
  1.400000000000e+00   8.000000000000e-01   0.000000000000e+00 
  1.600000000000e+00   2.000000000000e-01   0.000000000000e+00 
  1.500000000000e+00   6.000000000000e-01   0.000000000000e+00 
  1.600000000000e+00   3.000000000000e-01   0.000000000000e+00 
  1.300000000000e+00   1.000000000000e+00   0.000000000000e+00 
  1.600000000000e+00   4.000000000000e-01   0.000000000000e+00 
  1.500000000000e+00   7.000000000000e-01   0.000000000000e+00 
  1.400000000000e+00   9.000000000000e-01   0.000000000000e+00 
  1.600000000000e+00   5.000000000000e-01   0.000000000000e+00 
  1.700000000000e+00   0.000000000000e+00   0.000000000000e+00 
  1.500000000000e+00   8.000000000000e-01   0.000000000000e+00 
  1.700000000000e+00   1.000000000000e-01   0.000000000000e+00 
  1.600000000000e+00   6.000000000000e-01   0.000000000000e+00 
  1.700000000000e+00   2.000000000000e-01   0.000000000000e+00 
  1.400000000000e+00   1.000000000000e+00   0.000000000000e+00 
  1.700000000000e+00   3.000000000000e-01   0.000000000000e+00 
  1.600000000000e+00   7.000000000000e-01   0.000000000000e+00 
  1.700000000000e+00   4.000000000000e-01   0.000000000000e+00 
  1.500000000000e+00   9.000000000000e-01   0.000000000000e+00 
  1.700000000000e+00   5.000000000000e-01   0.000000000000e+00 
  1.600000000000e+00   8.000000000000e-01   0.000000000000e+00 
  1.800000000000e+00   0.000000000000e+00   0.000000000000e+00 
  1.800000000000e+00   1.000000000000e-01   0.000000000000e+00 
  1.500000000000e+00   1.000000000000e+00   0.000000000000e+00 
  1.700000000000e+00   6.000000000000e-01   0.000000000000e+00 
  1.800000000000e+00   2.000000000000e-01   0.000000000000e+00 
  1.800000000000e+00   3.000000000000e-01   0.000000000000e+00 
  1.600000000000e+00   9.000000000000e-01   0.000000000000e+00 
  1.700000000000e+00   7.000000000000e-01   0.000000000000e+00 
  1.800000000000e+00   4.000000000000e-01   0.000000000000e+00 
  1.800000000000e+00   5.000000000000e-01   0.000000000000e+00 
  1.700000000000e+00   8.000000000000e-01   0.000000000000e+00 
  1.600000000000e+00   1.000000000000e+00   0.000000000000e+00 
  1.800000000000e+00   6.000000000000e-01   0.000000000000e+00 
  1.900000000000e+00   0.000000000000e+00   0.000000000000e+00 
  1.900000000000e+00   1.000000000000e-01   0.000000000000e+00 
  1.900000000000e+00   2.000000000000e-01   0.000000000000e+00 
  1.900000000000e+00   3.000000000000e-01   0.000000000000e+00 
  1.700000000000e+00   9.000000000000e-01   0.000000000000e+00 
  1.800000000000e+00   7.000000000000e-01   0.000000000000e+00 
  1.900000000000e+00   4.000000000000e-01   0.000000000000e+00 
  1.900000000000e+00   5.000000000000e-01   0.000000000000e+00 
  1.800000000000e+00   8.000000000000e-01   0.000000000000e+00 
  1.700000000000e+00   1.000000000000e+00   0.000000000000e+00 
  1.900000000000e+00   6.000000000000e-01   0.000000000000e+00 
  2.000000000000e+00   0.000000000000e+00   0.000000000000e+00 
  2.000000000000e+00   1.000000000000e-01   0.000000000000e+00 
  2.000000000000e+00   2.000000000000e-01   0.000000000000e+00 
  1.800000000000e+00   9.000000000000e-01   0.000000000000e+00 
  2.000000000000e+00   3.000000000000e-01   0.000000000000e+00 
  1.900000000000e+00   7.000000000000e-01   0.000000000000e+00 
  2.000000000000e+00   4.000000000000e-01   0.000000000000e+00 
  1.800000000000e+00   1.000000000000e+00   0.000000000000e+00 
  1.900000000000e+00   8.000000000000e-01   0.000000000000e+00 
  2.000000000000e+00   5.000000000000e-01   0.000000000000e+00 
  2.000000000000e+00   6.000000000000e-01   0.000000000000e+00 
  1.900000000000e+00   9.000000000000e-01   0.000000000000e+00 
  2.000000000000e+00   7.000000000000e-01   0.000000000000e+00 
  1.900000000000e+00   1.000000000000e+00   0.000000000000e+00 
  2.000000000000e+00   8.000000000000e-01   0.000000000000e+00 
  2.000000000000e+00   9.000000000000e-01   0.000000000000e+00 
  2.000000000000e+00   1.000000000000e+00   0.000000000000e+00 


CELLS 200 1000
4 71 74 91 87 
4 57 61 74 71 
4 44 46 61 57 
4 34 36 46 44 
4 22 27 36 34 
4 16 18 27 22 
4 10 11 18 16 
4 4 7 11 10 
4 1 3 7 4 
4 0 2 3 1 
4 74 75 93 91 
4 61 63 75 74 
4 46 50 63 61 
4 36 37 50 46 
4 27 28 37 36 
4 18 21 28 27 
4 11 13 21 18 
4 7 8 13 11 
4 3 6 8 7 
4 2 5 6 3 
4 75 81 97 93 
4 63 66 81 75 
4 50 53 66 63 
4 37 41 53 50 
4 28 31 41 37 
4 21 25 31 28 
4 13 19 25 21 
4 8 14 19 13 
4 6 12 14 8 
4 5 9 12 6 
4 81 83 101 97 
4 66 70 83 81 
4 53 58 70 66 
4 41 48 58 53 
4 31 39 48 41 
4 25 30 39 31 
4 19 23 30 25 
4 14 20 23 19 
4 12 17 20 14 
4 9 15 17 12 
4 83 94 107 101 
4 70 80 94 83 
4 58 68 80 70 
4 48 54 68 58 
4 39 47 54 48 
4 30 40 47 39 
4 23 32 40 30 
4 20 29 32 23 
4 17 26 29 20 
4 15 24 26 17 
4 94 102 113 107 
4 80 89 102 94 
4 68 76 89 80 
4 54 64 76 68 
4 47 55 64 54 
4 40 49 55 47 
4 32 42 49 40 
4 29 38 42 32 
4 26 35 38 29 
4 24 33 35 26 
4 102 111 123 113 
4 89 99 111 102 
4 76 85 99 89 
4 64 77 85 76 
4 55 67 77 64 
4 49 60 67 55 
4 42 52 60 49 
4 38 51 52 42 
4 35 45 51 38 
4 33 43 45 35 
4 111 117 129 123 
4 99 109 117 111 
4 85 98 109 99 
4 77 88 98 85 
4 67 79 88 77 
4 60 69 79 67 
4 52 65 69 60 
4 51 62 65 52 
4 45 59 62 51 
4 43 56 59 45 
4 117 127 138 129 
4 109 119 127 117 
4 98 110 119 109 
4 88 103 110 98 
4 79 95 103 88 
4 69 84 95 79 
4 65 82 84 69 
4 62 78 82 65 
4 59 73 78 62 
4 56 72 73 59 
4 127 137 146 138 
4 119 128 137 127 
4 110 122 128 119 
4 103 114 122 110 
4 95 106 114 103 
4 84 100 106 95 
4 82 96 100 84 
4 78 92 96 82 
4 73 90 92 78 
4 72 86 90 73 
4 137 147 154 146 
4 128 140 147 137 
4 122 133 140 128 
4 114 125 133 122 
4 106 120 125 114 
4 100 115 120 106 
4 96 112 115 100 
4 92 108 112 96 
4 90 105 108 92 
4 86 104 105 90 
4 147 155 163 154 
4 140 150 155 147 
4 133 141 150 140 
4 125 136 141 133 
4 120 130 136 125 
4 115 126 130 120 
4 112 124 126 115 
4 108 121 124 112 
4 105 118 121 108 
4 104 116 118 105 
4 155 165 173 163 
4 150 160 165 155 
4 141 152 160 150 
4 136 148 152 141 
4 130 142 148 136 
4 126 139 142 130 
4 124 135 139 126 
4 121 134 135 124 
4 118 132 134 121 
4 116 131 132 118 
4 165 176 183 173 
4 160 169 176 165 
4 152 164 169 160 
4 148 159 164 152 
4 142 153 159 148 
4 139 151 153 142 
4 135 149 151 139 
4 134 145 149 135 
4 132 144 145 134 
4 131 143 144 132 
4 176 187 192 183 
4 169 179 187 176 
4 164 175 179 169 
4 159 171 175 164 
4 153 166 171 159 
4 151 162 166 153 
4 149 161 162 151 
4 145 158 161 149 
4 144 157 158 145 
4 143 156 157 144 
4 187 196 201 192 
4 179 189 196 187 
4 175 185 189 179 
4 171 181 185 175 
4 166 177 181 171 
4 162 174 177 166 
4 161 172 174 162 
4 158 170 172 161 
4 157 168 170 158 
4 156 167 168 157 
4 196 207 212 201 
4 189 200 207 196 
4 185 197 200 189 
4 181 193 197 185 
4 177 188 193 181 
4 174 186 188 177 
4 172 184 186 174 
4 170 182 184 172 
4 168 180 182 170 
4 167 178 180 168 
4 207 217 221 212 
4 200 211 217 207 
4 197 208 211 200 
4 193 202 208 197 
4 188 199 202 193 
4 186 198 199 188 
4 184 195 198 186 
4 182 194 195 184 
4 180 191 194 182 
4 178 190 191 180 
4 217 225 227 221 
4 211 222 225 217 
4 208 219 222 211 
4 202 213 219 208 
4 199 210 213 202 
4 198 209 210 199 
4 195 206 209 198 
4 194 205 206 195 
4 191 204 205 194 
4 190 203 204 191 
4 225 229 230 227 
4 222 228 229 225 
4 219 226 228 222 
4 213 224 226 219 
4 210 223 224 213 
4 209 220 223 210 
4 206 218 220 209 
4 205 216 218 206 
4 204 215 216 205 
4 203 214 215 204 

CELL_TYPES 200
9 
9 
9 
9 
9 
9 
9 
9 
9 
9 
9 
9 
9 
9 
9 
9 
9 
9 
9 
9 
9 
9 
9 
9 
9 
9 
9 
9 
9 
9 
9 
9 
9 
9 
9 
9 
9 
9 
9 
9 
9 
9 
9 
9 
9 
9 
9 
9 
9 
9 
9 
9 
9 
9 
9 
9 
9 
9 
9 
9 
9 
9 
9 
9 
9 
9 
9 
9 
9 
9 
9 
9 
9 
9 
9 
9 
9 
9 
9 
9 
9 
9 
9 
9 
9 
9 
9 
9 
9 
9 
9 
9 
9 
9 
9 
9 
9 
9 
9 
9 
9 
9 
9 
9 
9 
9 
9 
9 
9 
9 
9 
9 
9 
9 
9 
9 
9 
9 
9 
9 
9 
9 
9 
9 
9 
9 
9 
9 
9 
9 
9 
9 
9 
9 
9 
9 
9 
9 
9 
9 
9 
9 
9 
9 
9 
9 
9 
9 
9 
9 
9 
9 
9 
9 
9 
9 
9 
9 
9 
9 
9 
9 
9 
9 
9 
9 
9 
9 
9 
9 
9 
9 
9 
9 
9 
9 
9 
9 
9 
9 
9 
9 
9 
9 
9 
9 
9 
9 
9 
9 
9 
9 
9 
9 
9 
9 
9 
9 
9 
9 

CELL_DATA 200
SCALARS mat int 1
LOOKUP_TABLE default
1 
1 
1 
1 
1 
1 
1 
1 
1 
1 
1 
1 
1 
1 
1 
1 
1 
1 
1 
1 
1 
1 
1 
1 
1 
1 
1 
1 
1 
1 
1 
1 
1 
1 
1 
1 
1 
1 
1 
1 
1 
1 
1 
1 
1 
1 
1 
1 
1 
1 
1 
1 
1 
1 
1 
1 
1 
1 
1 
1 
1 
1 
1 
1 
1 
1 
1 
1 
1 
1 
1 
1 
1 
1 
1 
1 
1 
1 
1 
1 
1 
1 
1 
1 
1 
1 
1 
1 
1 
1 
1 
1 
1 
1 
1 
1 
1 
1 
1 
1 
1 
1 
1 
1 
1 
1 
1 
1 
1 
1 
1 
1 
1 
1 
1 
1 
1 
1 
1 
1 
1 
1 
1 
1 
1 
1 
1 
1 
1 
1 
1 
1 
1 
1 
1 
1 
1 
1 
1 
1 
1 
1 
1 
1 
1 
1 
1 
1 
1 
1 
1 
1 
1 
1 
1 
1 
1 
1 
1 
1 
1 
1 
1 
1 
1 
1 
1 
1 
1 
1 
1 
1 
1 
1 
1 
1 
1 
1 
1 
1 
1 
1 
1 
1 
1 
1 
1 
1 
1 
1 
1 
1 
1 
1 
1 
1 
1 
1 
1 
1 

SCALARS elGlobal int 1
LOOKUP_TABLE default
1 
2 
3 
4 
5 
6 
7 
8 
9 
10 
11 
12 
13 
14 
15 
16 
17 
18 
19 
20 
21 
22 
23 
24 
25 
26 
27 
28 
29 
30 
31 
32 
33 
34 
35 
36 
37 
38 
39 
40 
41 
42 
43 
44 
45 
46 
47 
48 
49 
50 
51 
52 
53 
54 
55 
56 
57 
58 
59 
60 
61 
62 
63 
64 
65 
66 
67 
68 
69 
70 
71 
72 
73 
74 
75 
76 
77 
78 
79 
80 
81 
82 
83 
84 
85 
86 
87 
88 
89 
90 
91 
92 
93 
94 
95 
96 
97 
98 
99 
100 
101 
102 
103 
104 
105 
106 
107 
108 
109 
110 
111 
112 
113 
114 
115 
116 
117 
118 
119 
120 
121 
122 
123 
124 
125 
126 
127 
128 
129 
130 
131 
132 
133 
134 
135 
136 
137 
138 
139 
140 
141 
142 
143 
144 
145 
146 
147 
148 
149 
150 
151 
152 
153 
154 
155 
156 
157 
158 
159 
160 
161 
162 
163 
164 
165 
166 
167 
168 
169 
170 
171 
172 
173 
174 
175 
176 
177 
178 
179 
180 
181 
182 
183 
184 
185 
186 
187 
188 
189 
190 
191 
192 
193 
194 
195 
196 
197 
198 
199 
200 

SCALARS elTyCal int 1
LOOKUP_TABLE default
5 
5 
5 
5 
5 
5 
5 
5 
5 
5 
5 
5 
5 
5 
5 
5 
5 
5 
5 
5 
5 
5 
5 
5 
5 
5 
5 
5 
5 
5 
5 
5 
5 
5 
5 
5 
5 
5 
5 
5 
5 
5 
5 
5 
5 
5 
5 
5 
5 
5 
5 
5 
5 
5 
5 
5 
5 
5 
5 
5 
5 
5 
5 
5 
5 
5 
5 
5 
5 
5 
5 
5 
5 
5 
5 
5 
5 
5 
5 
5 
5 
5 
5 
5 
5 
5 
5 
5 
5 
5 
5 
5 
5 
5 
5 
5 
5 
5 
5 
5 
5 
5 
5 
5 
5 
5 
5 
5 
5 
5 
5 
5 
5 
5 
5 
5 
5 
5 
5 
5 
5 
5 
5 
5 
5 
5 
5 
5 
5 
5 
5 
5 
5 
5 
5 
5 
5 
5 
5 
5 
5 
5 
5 
5 
5 
5 
5 
5 
5 
5 
5 
5 
5 
5 
5 
5 
5 
5 
5 
5 
5 
5 
5 
5 
5 
5 
5 
5 
5 
5 
5 
5 
5 
5 
5 
5 
5 
5 
5 
5 
5 
5 
5 
5 
5 
5 
5 
5 
5 
5 
5 
5 
5 
5 
5 
5 
5 
5 
5 
5 

SCALARS elProp double 5
LOOKUP_TABLE default
  1.000000000000e+01   1.000000000000e+02   5.600000000000e+02   0.000000000000e+00   0.000000000000e+00 
  1.000000000000e+01   1.000000000000e+02   5.600000000000e+02   0.000000000000e+00   0.000000000000e+00 
  1.000000000000e+01   1.000000000000e+02   5.600000000000e+02   0.000000000000e+00   0.000000000000e+00 
  1.000000000000e+01   1.000000000000e+02   5.600000000000e+02   0.000000000000e+00   0.000000000000e+00 
  1.000000000000e+01   1.000000000000e+02   5.600000000000e+02   0.000000000000e+00   0.000000000000e+00 
  1.000000000000e+01   1.000000000000e+02   5.600000000000e+02   0.000000000000e+00   0.000000000000e+00 
  1.000000000000e+01   1.000000000000e+02   5.600000000000e+02   0.000000000000e+00   0.000000000000e+00 
  1.000000000000e+01   1.000000000000e+02   5.600000000000e+02   0.000000000000e+00   0.000000000000e+00 
  1.000000000000e+01   1.000000000000e+02   5.600000000000e+02   0.000000000000e+00   0.000000000000e+00 
  1.000000000000e+01   1.000000000000e+02   5.600000000000e+02   0.000000000000e+00   0.000000000000e+00 
  1.000000000000e+01   1.000000000000e+02   5.600000000000e+02   0.000000000000e+00   0.000000000000e+00 
  1.000000000000e+01   1.000000000000e+02   5.600000000000e+02   0.000000000000e+00   0.000000000000e+00 
  1.000000000000e+01   1.000000000000e+02   5.600000000000e+02   0.000000000000e+00   0.000000000000e+00 
  1.000000000000e+01   1.000000000000e+02   5.600000000000e+02   0.000000000000e+00   0.000000000000e+00 
  1.000000000000e+01   1.000000000000e+02   5.600000000000e+02   0.000000000000e+00   0.000000000000e+00 
  1.000000000000e+01   1.000000000000e+02   5.600000000000e+02   0.000000000000e+00   0.000000000000e+00 
  1.000000000000e+01   1.000000000000e+02   5.600000000000e+02   0.000000000000e+00   0.000000000000e+00 
  1.000000000000e+01   1.000000000000e+02   5.600000000000e+02   0.000000000000e+00   0.000000000000e+00 
  1.000000000000e+01   1.000000000000e+02   5.600000000000e+02   0.000000000000e+00   0.000000000000e+00 
  1.000000000000e+01   1.000000000000e+02   5.600000000000e+02   0.000000000000e+00   0.000000000000e+00 
  1.000000000000e+01   1.000000000000e+02   5.600000000000e+02   0.000000000000e+00   0.000000000000e+00 
  1.000000000000e+01   1.000000000000e+02   5.600000000000e+02   0.000000000000e+00   0.000000000000e+00 
  1.000000000000e+01   1.000000000000e+02   5.600000000000e+02   0.000000000000e+00   0.000000000000e+00 
  1.000000000000e+01   1.000000000000e+02   5.600000000000e+02   0.000000000000e+00   0.000000000000e+00 
  1.000000000000e+01   1.000000000000e+02   5.600000000000e+02   0.000000000000e+00   0.000000000000e+00 
  1.000000000000e+01   1.000000000000e+02   5.600000000000e+02   0.000000000000e+00   0.000000000000e+00 
  1.000000000000e+01   1.000000000000e+02   5.600000000000e+02   0.000000000000e+00   0.000000000000e+00 
  1.000000000000e+01   1.000000000000e+02   5.600000000000e+02   0.000000000000e+00   0.000000000000e+00 
  1.000000000000e+01   1.000000000000e+02   5.600000000000e+02   0.000000000000e+00   0.000000000000e+00 
  1.000000000000e+01   1.000000000000e+02   5.600000000000e+02   0.000000000000e+00   0.000000000000e+00 
  1.000000000000e+01   1.000000000000e+02   5.600000000000e+02   0.000000000000e+00   0.000000000000e+00 
  1.000000000000e+01   1.000000000000e+02   5.600000000000e+02   0.000000000000e+00   0.000000000000e+00 
  1.000000000000e+01   1.000000000000e+02   5.600000000000e+02   0.000000000000e+00   0.000000000000e+00 
  1.000000000000e+01   1.000000000000e+02   5.600000000000e+02   0.000000000000e+00   0.000000000000e+00 
  1.000000000000e+01   1.000000000000e+02   5.600000000000e+02   0.000000000000e+00   0.000000000000e+00 
  1.000000000000e+01   1.000000000000e+02   5.600000000000e+02   0.000000000000e+00   0.000000000000e+00 
  1.000000000000e+01   1.000000000000e+02   5.600000000000e+02   0.000000000000e+00   0.000000000000e+00 
  1.000000000000e+01   1.000000000000e+02   5.600000000000e+02   0.000000000000e+00   0.000000000000e+00 
  1.000000000000e+01   1.000000000000e+02   5.600000000000e+02   0.000000000000e+00   0.000000000000e+00 
  1.000000000000e+01   1.000000000000e+02   5.600000000000e+02   0.000000000000e+00   0.000000000000e+00 
  1.000000000000e+01   1.000000000000e+02   5.600000000000e+02   0.000000000000e+00   0.000000000000e+00 
  1.000000000000e+01   1.000000000000e+02   5.600000000000e+02   0.000000000000e+00   0.000000000000e+00 
  1.000000000000e+01   1.000000000000e+02   5.600000000000e+02   0.000000000000e+00   0.000000000000e+00 
  1.000000000000e+01   1.000000000000e+02   5.600000000000e+02   0.000000000000e+00   0.000000000000e+00 
  1.000000000000e+01   1.000000000000e+02   5.600000000000e+02   0.000000000000e+00   0.000000000000e+00 
  1.000000000000e+01   1.000000000000e+02   5.600000000000e+02   0.000000000000e+00   0.000000000000e+00 
  1.000000000000e+01   1.000000000000e+02   5.600000000000e+02   0.000000000000e+00   0.000000000000e+00 
  1.000000000000e+01   1.000000000000e+02   5.600000000000e+02   0.000000000000e+00   0.000000000000e+00 
  1.000000000000e+01   1.000000000000e+02   5.600000000000e+02   0.000000000000e+00   0.000000000000e+00 
  1.000000000000e+01   1.000000000000e+02   5.600000000000e+02   0.000000000000e+00   0.000000000000e+00 
  1.000000000000e+01   1.000000000000e+02   5.600000000000e+02   0.000000000000e+00   0.000000000000e+00 
  1.000000000000e+01   1.000000000000e+02   5.600000000000e+02   0.000000000000e+00   0.000000000000e+00 
  1.000000000000e+01   1.000000000000e+02   5.600000000000e+02   0.000000000000e+00   0.000000000000e+00 
  1.000000000000e+01   1.000000000000e+02   5.600000000000e+02   0.000000000000e+00   0.000000000000e+00 
  1.000000000000e+01   1.000000000000e+02   5.600000000000e+02   0.000000000000e+00   0.000000000000e+00 
  1.000000000000e+01   1.000000000000e+02   5.600000000000e+02   0.000000000000e+00   0.000000000000e+00 
  1.000000000000e+01   1.000000000000e+02   5.600000000000e+02   0.000000000000e+00   0.000000000000e+00 
  1.000000000000e+01   1.000000000000e+02   5.600000000000e+02   0.000000000000e+00   0.000000000000e+00 
  1.000000000000e+01   1.000000000000e+02   5.600000000000e+02   0.000000000000e+00   0.000000000000e+00 
  1.000000000000e+01   1.000000000000e+02   5.600000000000e+02   0.000000000000e+00   0.000000000000e+00 
  1.000000000000e+01   1.000000000000e+02   5.600000000000e+02   0.000000000000e+00   0.000000000000e+00 
  1.000000000000e+01   1.000000000000e+02   5.600000000000e+02   0.000000000000e+00   0.000000000000e+00 
  1.000000000000e+01   1.000000000000e+02   5.600000000000e+02   0.000000000000e+00   0.000000000000e+00 
  1.000000000000e+01   1.000000000000e+02   5.600000000000e+02   0.000000000000e+00   0.000000000000e+00 
  1.000000000000e+01   1.000000000000e+02   5.600000000000e+02   0.000000000000e+00   0.000000000000e+00 
  1.000000000000e+01   1.000000000000e+02   5.600000000000e+02   0.000000000000e+00   0.000000000000e+00 
  1.000000000000e+01   1.000000000000e+02   5.600000000000e+02   0.000000000000e+00   0.000000000000e+00 
  1.000000000000e+01   1.000000000000e+02   5.600000000000e+02   0.000000000000e+00   0.000000000000e+00 
  1.000000000000e+01   1.000000000000e+02   5.600000000000e+02   0.000000000000e+00   0.000000000000e+00 
  1.000000000000e+01   1.000000000000e+02   5.600000000000e+02   0.000000000000e+00   0.000000000000e+00 
  1.000000000000e+01   1.000000000000e+02   5.600000000000e+02   0.000000000000e+00   0.000000000000e+00 
  1.000000000000e+01   1.000000000000e+02   5.600000000000e+02   0.000000000000e+00   0.000000000000e+00 
  1.000000000000e+01   1.000000000000e+02   5.600000000000e+02   0.000000000000e+00   0.000000000000e+00 
  1.000000000000e+01   1.000000000000e+02   5.600000000000e+02   0.000000000000e+00   0.000000000000e+00 
  1.000000000000e+01   1.000000000000e+02   5.600000000000e+02   0.000000000000e+00   0.000000000000e+00 
  1.000000000000e+01   1.000000000000e+02   5.600000000000e+02   0.000000000000e+00   0.000000000000e+00 
  1.000000000000e+01   1.000000000000e+02   5.600000000000e+02   0.000000000000e+00   0.000000000000e+00 
  1.000000000000e+01   1.000000000000e+02   5.600000000000e+02   0.000000000000e+00   0.000000000000e+00 
  1.000000000000e+01   1.000000000000e+02   5.600000000000e+02   0.000000000000e+00   0.000000000000e+00 
  1.000000000000e+01   1.000000000000e+02   5.600000000000e+02   0.000000000000e+00   0.000000000000e+00 
  1.000000000000e+01   1.000000000000e+02   5.600000000000e+02   0.000000000000e+00   0.000000000000e+00 
  1.000000000000e+01   1.000000000000e+02   5.600000000000e+02   0.000000000000e+00   0.000000000000e+00 